ATOMS
     6   -2.567869    0.032045   -0.221028
     9   -2.886000    0.687964    0.883366
     8   -1.382513   -0.640867   -0.040575
     6   -0.229973    0.040074   -0.088613
     9   -0.144013    0.755076   -1.202635
     9   -3.477776   -0.891429   -0.435296
     8    0.750693   -0.879985   -0.022804
     6    2.051993   -0.506002    0.090723
     9    2.454670   -0.625774    1.333637
     9   -0.132224    0.912482    0.909417
     9    2.776631   -1.267760   -0.681152
     8    2.543443    1.857414   -0.537325
     1   -2.530354    0.718822   -1.046630
     1    2.306985    0.752430   -0.270590
     1    2.083902    2.304517    0.170326
