 ANIMSTEPS 29
 SLAB
 PRIMVEC
   5.8859828533     0.0000000000     0.0000000000
   0.0000000000     5.8859828533     0.0000000000
   0.0000000000     0.0000000000    17.0000133966
 PRIMCOORD 1
26 1
  C    3.6747591817     2.9429926038    -3.4931030359     -0.0216686900     0.0000000000    -0.0573247900
  H    4.1219902853     3.8167349741    -4.0076897956     -0.0004783600     0.0012041500     0.0066573100
  H    4.1219902853     2.0692508222    -4.0076897956     -0.0004783600    -0.0012041500     0.0066573100
  C    2.2112266146     2.9429926038    -3.4931030359      0.0216686900     0.0000000000    -0.0573247900
  H    1.7639955110     3.8167349741    -4.0076897956      0.0004783600     0.0012041500     0.0066573100
  H    1.7639955110     2.0692508222    -4.0076897956      0.0004783600    -0.0012041500     0.0066573100
  8    0.0000000000     0.0000000000    -2.7190121211      0.0000000000     0.0000000000    -0.0502422400
 Ag   4.4481473101     4.4498925040    -1.9190116984     -0.0228129300    -0.0291236500     0.0075538600
 Ag   4.4481473101     1.4360932923    -1.9190116984     -0.0228129300     0.0291236500     0.0075538600
 Ag   1.4378384862     4.4498925040    -1.9190116984      0.0228129300    -0.0291236500     0.0075538600
 Ag   1.4378384862     1.4360932923    -1.9190116984      0.0228129300     0.0291236500     0.0075538600
 Ag   2.9429926038     2.9429926038     0.0000000000      0.0000000000     0.0000000000     0.0000000000
 Ag   2.9429926038     0.0000000000     0.0000000000      0.0000000000     0.0000000000     0.0000000000
 Ag   0.0000000000     2.9429926038     0.0000000000      0.0000000000     0.0000000000     0.0000000000
 Ag   0.0000000000     0.0000000000     0.0000000000      0.0000000000     0.0000000000     0.0000000000
 Ag   1.4378384862     1.4360932923     1.9190116984      0.0228129300     0.0291236500    -0.0075538600
 Ag   1.4378384862     4.4498925040     1.9190116984      0.0228129300    -0.0291236500    -0.0075538600
 Ag   4.4481473101     1.4360932923     1.9190116984     -0.0228129300     0.0291236500    -0.0075538600
 Ag   4.4481473101     4.4498925040     1.9190116984     -0.0228129300    -0.0291236500    -0.0075538600
  8    0.0000000000     0.0000000000     2.7190121211      0.0000000000     0.0000000000     0.0502422400
  C    3.6747591817     2.9429926038     3.4931030359     -0.0216686900     0.0000000000     0.0573247900
  H    4.1219902853     3.8167349741     4.0076897956     -0.0004783600     0.0012041500    -0.0066573100
  H    4.1219902853     2.0692508222     4.0076897956     -0.0004783600    -0.0012041500    -0.0066573100
  C    2.2112266146     2.9429926038     3.4931030359      0.0216686900     0.0000000000     0.0573247900
  H    1.7639955110     3.8167349741     4.0076897956      0.0004783600     0.0012041500    -0.0066573100
  H    1.7639955110     2.0692508222     4.0076897956      0.0004783600    -0.0012041500    -0.0066573100
 PRIMCOORD 2
26 1
  C    3.6632923218     2.9429928569    -3.5234382143     -0.0135140600     0.0000000000    -0.0474424600
  H    4.1217372822     3.8173721376    -4.0041671350      0.0041293900     0.0092160300     0.0014698300
  H    4.1217372822     2.0686135762    -4.0041671350      0.0041293900    -0.0092160300     0.0014698300
  C    2.2226933862     2.9429928569    -3.5234382143      0.0135140600     0.0000000000    -0.0474424600
  H    1.7642484317     3.8173721376    -4.0041671350     -0.0041293900     0.0092160300     0.0014698300
  H    1.7642484317     2.0686135762    -4.0041671350     -0.0041293900    -0.0092160300     0.0014698300
  8    0.0000000000     0.0000000000    -2.7455989880      0.0000000000     0.0000000000    -0.0385647300
 Ag   4.4360751004     4.4344811292    -1.9150142332     -0.0141667900    -0.0180948200     0.0054976200
 Ag   4.4360751004     1.4515045729    -1.9150142332     -0.0141667900     0.0180948200     0.0054976200
 Ag   1.4499106017     4.4344811292    -1.9150142332      0.0141667900    -0.0180948200     0.0054976200
 Ag   1.4499106017     1.4515045729    -1.9150142332      0.0141667900     0.0180948200     0.0054976200
 Ag   2.9429928569     2.9429928569     0.0000000000      0.0000000000     0.0000000000     0.0000000000
 Ag   2.9429928569     0.0000000000     0.0000000000      0.0000000000     0.0000000000     0.0000000000
 Ag   0.0000000000     2.9429928569     0.0000000000      0.0000000000     0.0000000000     0.0000000000
 Ag   0.0000000000     0.0000000000     0.0000000000      0.0000000000     0.0000000000     0.0000000000
 Ag   1.4499106017     1.4515045729     1.9150142332      0.0141667900     0.0180948200    -0.0054976200
 Ag   1.4499106017     4.4344811292     1.9150142332      0.0141667900    -0.0180948200    -0.0054976200
 Ag   4.4360751004     1.4515045729     1.9150142332     -0.0141667900     0.0180948200    -0.0054976200
 Ag   4.4360751004     4.4344811292     1.9150142332     -0.0141667900    -0.0180948200    -0.0054976200
  8    0.0000000000     0.0000000000     2.7455989880      0.0000000000     0.0000000000     0.0385647300
  C    3.6632923218     2.9429928569     3.5234382143     -0.0135140600     0.0000000000     0.0474424600
  H    4.1217372822     3.8173721376     4.0041671350      0.0041293900     0.0092160300    -0.0014698300
  H    4.1217372822     2.0686135762     4.0041671350      0.0041293900    -0.0092160300    -0.0014698300
  C    2.2226933862     2.9429928569     3.5234382143      0.0135140600     0.0000000000     0.0474424600
  H    1.7642484317     3.8173721376     4.0041671350     -0.0041293900     0.0092160300    -0.0014698300
  H    1.7642484317     2.0686135762     4.0041671350     -0.0041293900    -0.0092160300    -0.0014698300
 PRIMCOORD 3
26 1
  C    3.6261483797     2.9429928569    -3.6217029852      0.0304644500     0.0000000000    -0.0333218400
  H    4.1209172824     3.8194362518    -3.9927553384      0.0186535000     0.0325356400    -0.0091719500
  H    4.1209172824     2.0665494621    -3.9927553384      0.0186535000    -0.0325356400    -0.0091719500
  C    2.2598373342     2.9429928569    -3.6217029852     -0.0304644500     0.0000000000    -0.0333218400
  H    1.7650684315     3.8194362518    -3.9927553384     -0.0186535000     0.0325356400    -0.0091719500
  H    1.7650684315     2.0665494621    -3.9927553384     -0.0186535000    -0.0325356400    -0.0091719500
  8    0.0000000000     0.0000000000    -2.8317230187      0.0000000000     0.0000000000    -0.0053133800
 Ag   4.3969697251     4.3845580767    -1.9020655889      0.0107442400     0.0156938800    -0.0007178900
 Ag   4.3969697251     1.5014276254    -1.9020655889      0.0107442400    -0.0156938800    -0.0007178900
 Ag   1.4890159829     4.3845580767    -1.9020655889     -0.0107442400     0.0156938800    -0.0007178900
 Ag   1.4890159829     1.5014276254    -1.9020655889     -0.0107442400    -0.0156938800    -0.0007178900
 Ag   2.9429928569     2.9429928569     0.0000000000      0.0000000000     0.0000000000     0.0000000000
 Ag   2.9429928569     0.0000000000     0.0000000000      0.0000000000     0.0000000000     0.0000000000
 Ag   0.0000000000     2.9429928569     0.0000000000      0.0000000000     0.0000000000     0.0000000000
 Ag   0.0000000000     0.0000000000     0.0000000000      0.0000000000     0.0000000000     0.0000000000
 Ag   1.4890159829     1.5014276254     1.9020655889     -0.0107442400    -0.0156938800     0.0007178900
 Ag   1.4890159829     4.3845580767     1.9020655889     -0.0107442400     0.0156938800     0.0007178900
 Ag   4.3969697251     1.5014276254     1.9020655889      0.0107442400    -0.0156938800     0.0007178900
 Ag   4.3969697251     4.3845580767     1.9020655889      0.0107442400     0.0156938800     0.0007178900
  8    0.0000000000     0.0000000000     2.8317230187      0.0000000000     0.0000000000     0.0053133800
  C    3.6261483797     2.9429928569     3.6217029852      0.0304644500     0.0000000000     0.0333218400
  H    4.1209172824     3.8194362518     3.9927553384      0.0186535000     0.0325356400     0.0091719500
  H    4.1209172824     2.0665494621     3.9927553384      0.0186535000    -0.0325356400     0.0091719500
  C    2.2598373342     2.9429928569     3.6217029852     -0.0304644500     0.0000000000     0.0333218400
  H    1.7650684315     3.8194362518     3.9927553384     -0.0186535000     0.0325356400     0.0091719500
  H    1.7650684315     2.0665494621     3.9927553384     -0.0186535000    -0.0325356400     0.0091719500
 PRIMCOORD 4
26 1
  C    3.6344116345     2.9429928569    -3.6594260080     -0.0065320900     0.0000000000    -0.0316080000
  H    4.1305046184     3.8368802684    -3.9951958965      0.0171866500     0.0246789900    -0.0093213500
  H    4.1305046184     2.0491054455    -3.9951958965      0.0171866500    -0.0246789900    -0.0093213500
  C    2.2515740794     2.9429928569    -3.6594260080      0.0065320900     0.0000000000    -0.0316080000
  H    1.7554810896     3.8368802684    -3.9951958965     -0.0171866500     0.0246789900    -0.0093213500
  H    1.7554810896     2.0491054455    -3.9951958965     -0.0171866500    -0.0246789900    -0.0093213500
  8    0.0000000000     0.0000000000    -2.8522888900      0.0000000000     0.0000000000    -0.0020063200
 Ag   4.3945132632     4.3824564100    -1.8997668713      0.0116549200     0.0170592600    -0.0025166800
 Ag   4.3945132632     1.5035292921    -1.8997668713      0.0116549200    -0.0170592600    -0.0025166800
 Ag   1.4914724389     4.3824564100    -1.8997668713     -0.0116549200     0.0170592600    -0.0025166800
 Ag   1.4914724389     1.5035292921    -1.8997668713     -0.0116549200    -0.0170592600    -0.0025166800
 Ag   2.9429928569     2.9429928569     0.0000000000      0.0000000000     0.0000000000     0.0000000000
 Ag   2.9429928569     0.0000000000     0.0000000000      0.0000000000     0.0000000000     0.0000000000
 Ag   0.0000000000     2.9429928569     0.0000000000      0.0000000000     0.0000000000     0.0000000000
 Ag   0.0000000000     0.0000000000     0.0000000000      0.0000000000     0.0000000000     0.0000000000
 Ag   1.4914724389     1.5035292921     1.8997668713     -0.0116549200    -0.0170592600     0.0025166800
 Ag   1.4914724389     4.3824564100     1.8997668713     -0.0116549200     0.0170592600     0.0025166800
 Ag   4.3945132632     1.5035292921     1.8997668713      0.0116549200    -0.0170592600     0.0025166800
 Ag   4.3945132632     4.3824564100     1.8997668713      0.0116549200     0.0170592600     0.0025166800
  8    0.0000000000     0.0000000000     2.8522888900      0.0000000000     0.0000000000     0.0020063200
  C    3.6344116345     2.9429928569     3.6594260080     -0.0065320900     0.0000000000     0.0316080000
  H    4.1305046184     3.8368802684     3.9951958965      0.0171866500     0.0246789900     0.0093213500
  H    4.1305046184     2.0491054455     3.9951958965      0.0171866500    -0.0246789900     0.0093213500
  C    2.2515740794     2.9429928569     3.6594260080      0.0065320900     0.0000000000     0.0316080000
  H    1.7554810896     3.8368802684     3.9951958965     -0.0171866500     0.0246789900     0.0093213500
  H    1.7554810896     2.0491054455     3.9951958965     -0.0171866500    -0.0246789900     0.0093213500
 PRIMCOORD 5
26 1
  C    3.6406655678     2.9429928569    -3.6879761562     -0.0316616600     0.0000000000    -0.0313677600
  H    4.1377606639     3.8500825279    -3.9970430003      0.0157467300     0.0181431000    -0.0092768200
  H    4.1377606639     2.0359031860    -3.9970430003      0.0157467300    -0.0181431000    -0.0092768200
  C    2.2453201461     2.9429928569    -3.6879761562      0.0316616600     0.0000000000    -0.0313677600
  H    1.7482250441     3.8500825279    -3.9970430003     -0.0157467300     0.0181431000    -0.0092768200
  H    1.7482250441     2.0359031860    -3.9970430003     -0.0157467300    -0.0181431000    -0.0092768200
  8    0.0000000000     0.0000000000    -2.8678538890      0.0000000000     0.0000000000     0.0002295900
 Ag   4.3926541284     4.3808657879    -1.8980271219      0.0123614500     0.0181048000    -0.0038624700
 Ag   4.3926541284     1.5051199083    -1.8980271219      0.0123614500    -0.0181048000    -0.0038624700
 Ag   1.4933315796     4.3808657879    -1.8980271219     -0.0123614500     0.0181048000    -0.0038624700
 Ag   1.4933315796     1.5051199083    -1.8980271219     -0.0123614500    -0.0181048000    -0.0038624700
 Ag   2.9429928569     2.9429928569     0.0000000000      0.0000000000     0.0000000000     0.0000000000
 Ag   2.9429928569     0.0000000000     0.0000000000      0.0000000000     0.0000000000     0.0000000000
 Ag   0.0000000000     2.9429928569     0.0000000000      0.0000000000     0.0000000000     0.0000000000
 Ag   0.0000000000     0.0000000000     0.0000000000      0.0000000000     0.0000000000     0.0000000000
 Ag   1.4933315796     1.5051199083     1.8980271219     -0.0123614500    -0.0181048000     0.0038624700
 Ag   1.4933315796     4.3808657879     1.8980271219     -0.0123614500     0.0181048000     0.0038624700
 Ag   4.3926541284     1.5051199083     1.8980271219      0.0123614500    -0.0181048000     0.0038624700
 Ag   4.3926541284     4.3808657879     1.8980271219      0.0123614500     0.0181048000     0.0038624700
  8    0.0000000000     0.0000000000     2.8678538890      0.0000000000     0.0000000000    -0.0002295900
  C    3.6406655678     2.9429928569     3.6879761562     -0.0316616600     0.0000000000     0.0313677600
  H    4.1377606639     3.8500825279     3.9970430003      0.0157467300     0.0181431000     0.0092768200
  H    4.1377606639     2.0359031860     3.9970430003      0.0157467300    -0.0181431000     0.0092768200
  C    2.2453201461     2.9429928569     3.6879761562      0.0316616600     0.0000000000     0.0313677600
  H    1.7482250441     3.8500825279     3.9970430003     -0.0157467300     0.0181431000     0.0092768200
  H    1.7482250441     2.0359031860     3.9970430003     -0.0157467300    -0.0181431000     0.0092768200
 PRIMCOORD 6
26 1
  C    3.6602039996     2.9429928569    -3.7771720696     -0.0944414000     0.0000000000    -0.0291519500
  H    4.1604298853     3.8913288235    -4.0028136885      0.0092172700    -0.0057608200    -0.0089876100
  H    4.1604298853     1.9946568845    -4.0028136885      0.0092172700     0.0057608200    -0.0089876100
  C    2.2257817143     2.9429928569    -3.7771720696      0.0944414000     0.0000000000    -0.0291519500
  H    1.7255558286     3.8913288235    -4.0028136885     -0.0092172700    -0.0057608200    -0.0089876100
  H    1.7255558286     1.9946568845    -4.0028136885     -0.0092172700     0.0057608200    -0.0089876100
  8    0.0000000000     0.0000000000    -2.9164818075      0.0000000000     0.0000000000     0.0082867100
 Ag   4.3868458464     4.3758964056    -1.8925918111      0.0146380500     0.0213080500    -0.0079571900
 Ag   4.3868458464     1.5100892965    -1.8925918111      0.0146380500    -0.0213080500    -0.0079571900
 Ag   1.4991398616     4.3758964056    -1.8925918111     -0.0146380500     0.0213080500    -0.0079571900
 Ag   1.4991398616     1.5100892965    -1.8925918111     -0.0146380500    -0.0213080500    -0.0079571900
 Ag   2.9429928569     2.9429928569     0.0000000000      0.0000000000     0.0000000000     0.0000000000
 Ag   2.9429928569     0.0000000000     0.0000000000      0.0000000000     0.0000000000     0.0000000000
 Ag   0.0000000000     2.9429928569     0.0000000000      0.0000000000     0.0000000000     0.0000000000
 Ag   0.0000000000     0.0000000000     0.0000000000      0.0000000000     0.0000000000     0.0000000000
 Ag   1.4991398616     1.5100892965     1.8925918111     -0.0146380500    -0.0213080500     0.0079571900
 Ag   1.4991398616     4.3758964056     1.8925918111     -0.0146380500     0.0213080500     0.0079571900
 Ag   4.3868458464     1.5100892965     1.8925918111      0.0146380500    -0.0213080500     0.0079571900
 Ag   4.3868458464     4.3758964056     1.8925918111      0.0146380500     0.0213080500     0.0079571900
  8    0.0000000000     0.0000000000     2.9164818075      0.0000000000     0.0000000000    -0.0082867100
  C    3.6602039996     2.9429928569     3.7771720696     -0.0944414000     0.0000000000     0.0291519500
  H    4.1604298853     3.8913288235     4.0028136885      0.0092172700    -0.0057608200     0.0089876100
  H    4.1604298853     1.9946568845     4.0028136885      0.0092172700     0.0057608200     0.0089876100
  C    2.2257817143     2.9429928569     3.7771720696      0.0944414000     0.0000000000     0.0291519500
  H    1.7255558286     3.8913288235     4.0028136885     -0.0092172700    -0.0057608200     0.0089876100
  H    1.7255558286     1.9946568845     4.0028136885     -0.0092172700     0.0057608200     0.0089876100
 PRIMCOORD 7
26 1
  C    3.6235452214     2.9429928569    -3.8952738094      0.0237050300     0.0000000000    -0.0369198100
  H    4.1877853319     3.9294500978    -4.0117861277     -0.0157672000    -0.0467803300    -0.0047545200
  H    4.1877853319     1.9565356102    -4.0117861277     -0.0157672000     0.0467803300    -0.0047545200
  C    2.2624404925     2.9429928569    -3.8952738094     -0.0237050300     0.0000000000    -0.0369198100
  H    1.6982003819     3.9294500978    -4.0117861277      0.0157672000    -0.0467803300    -0.0047545200
  H    1.6982003819     1.9565356102    -4.0117861277      0.0157672000     0.0467803300    -0.0047545200
  8    0.0000000000     0.0000000000    -2.9723939181      0.0000000000     0.0000000000     0.0143148800
 Ag   4.3834820425     4.3754433674    -1.8896671957      0.0170421600     0.0243222300    -0.0098535400
 Ag   4.3834820425     1.5105423347    -1.8896671957      0.0170421600    -0.0243222300    -0.0098535400
 Ag   1.5025036596     4.3754433674    -1.8896671957     -0.0170421600     0.0243222300    -0.0098535400
 Ag   1.5025036596     1.5105423347    -1.8896671957     -0.0170421600    -0.0243222300    -0.0098535400
 Ag   2.9429928569     2.9429928569     0.0000000000      0.0000000000     0.0000000000     0.0000000000
 Ag   2.9429928569     0.0000000000     0.0000000000      0.0000000000     0.0000000000     0.0000000000
 Ag   0.0000000000     2.9429928569     0.0000000000      0.0000000000     0.0000000000     0.0000000000
 Ag   0.0000000000     0.0000000000     0.0000000000      0.0000000000     0.0000000000     0.0000000000
 Ag   1.5025036596     1.5105423347     1.8896671957     -0.0170421600    -0.0243222300     0.0098535400
 Ag   1.5025036596     4.3754433674     1.8896671957     -0.0170421600     0.0243222300     0.0098535400
 Ag   4.3834820425     1.5105423347     1.8896671957      0.0170421600    -0.0243222300     0.0098535400
 Ag   4.3834820425     4.3754433674     1.8896671957      0.0170421600     0.0243222300     0.0098535400
  8    0.0000000000     0.0000000000     2.9723939181      0.0000000000     0.0000000000    -0.0143148800
  C    3.6235452214     2.9429928569     3.8952738094      0.0237050300     0.0000000000     0.0369198100
  H    4.1877853319     3.9294500978     4.0117861277     -0.0157672000    -0.0467803300     0.0047545200
  H    4.1877853319     1.9565356102     4.0117861277     -0.0157672000     0.0467803300     0.0047545200
  C    2.2624404925     2.9429928569     3.8952738094     -0.0237050300     0.0000000000     0.0369198100
  H    1.6982003819     3.9294500978     4.0117861277      0.0157672000    -0.0467803300     0.0047545200
  H    1.6982003819     1.9565356102     4.0117861277      0.0157672000     0.0467803300     0.0047545200
 PRIMCOORD 8
26 1
  C    3.6284456435     2.9429928569    -3.8794863673      0.0033769900     0.0000000000    -0.0375815900
  H    4.1841285474     3.9243541787    -4.0105867234     -0.0122847100    -0.0414977600    -0.0045491900
  H    4.1841285474     1.9616315352    -4.0105867234     -0.0122847100     0.0414977600    -0.0045491900
  C    2.2575400704     2.9429928569    -3.8794863673     -0.0033769900     0.0000000000    -0.0375815900
  H    1.7018571665     3.9243541787    -4.0105867234      0.0122847100    -0.0414977600    -0.0045491900
  H    1.7018571665     1.9616315352    -4.0105867234      0.0122847100     0.0414977600    -0.0045491900
  8    0.0000000000     0.0000000000    -2.9649197735      0.0000000000     0.0000000000     0.0136636300
 Ag   4.3839317081     4.3755039283    -1.8900581485      0.0167102000     0.0240648300    -0.0094847400
 Ag   4.3839317081     1.5104817739    -1.8900581485      0.0167102000    -0.0240648300    -0.0094847400
 Ag   1.5020539999     4.3755039283    -1.8900581485     -0.0167102000     0.0240648300    -0.0094847400
 Ag   1.5020539999     1.5104817739    -1.8900581485     -0.0167102000    -0.0240648300    -0.0094847400
 Ag   2.9429928569     2.9429928569     0.0000000000      0.0000000000     0.0000000000     0.0000000000
 Ag   2.9429928569     0.0000000000     0.0000000000      0.0000000000     0.0000000000     0.0000000000
 Ag   0.0000000000     2.9429928569     0.0000000000      0.0000000000     0.0000000000     0.0000000000
 Ag   0.0000000000     0.0000000000     0.0000000000      0.0000000000     0.0000000000     0.0000000000
 Ag   1.5020539999     1.5104817739     1.8900581485     -0.0167102000    -0.0240648300     0.0094847400
 Ag   1.5020539999     4.3755039283     1.8900581485     -0.0167102000     0.0240648300     0.0094847400
 Ag   4.3839317081     1.5104817739     1.8900581485      0.0167102000    -0.0240648300     0.0094847400
 Ag   4.3839317081     4.3755039283     1.8900581485      0.0167102000     0.0240648300     0.0094847400
  8    0.0000000000     0.0000000000     2.9649197735      0.0000000000     0.0000000000    -0.0136636300
  C    3.6284456435     2.9429928569     3.8794863673      0.0033769900     0.0000000000     0.0375815900
  H    4.1841285474     3.9243541787     4.0105867234     -0.0122847100    -0.0414977600     0.0045491900
  H    4.1841285474     1.9616315352     4.0105867234     -0.0122847100     0.0414977600     0.0045491900
  C    2.2575400704     2.9429928569     3.8794863673     -0.0033769900     0.0000000000     0.0375815900
  H    1.7018571665     3.9243541787     4.0105867234      0.0122847100    -0.0414977600     0.0045491900
  H    1.7018571665     1.9616315352     4.0105867234      0.0122847100     0.0414977600     0.0045491900
 PRIMCOORD 9
26 1
  C    3.6171979893     2.9429928569    -3.9283877309      0.0325712900     0.0000000000    -0.0296082100
  H    4.1869806945     3.9143517689    -4.0174257116     -0.0118707800    -0.0353202100    -0.0074868700
  H    4.1869806945     1.9716339449    -4.0174257116     -0.0118707800     0.0353202100    -0.0074868700
  C    2.2687877245     2.9429928569    -3.9283877309     -0.0325712900     0.0000000000    -0.0296082100
  H    1.6990050193     3.9143517689    -4.0174257116      0.0118707800    -0.0353202100    -0.0074868700
  H    1.6990050193     1.9716339449    -4.0174257116      0.0118707800     0.0353202100    -0.0074868700
  8    0.0000000000     0.0000000000    -2.9665470888      0.0000000000     0.0000000000     0.0085060900
 Ag   4.3962537130     4.3940268455    -1.8957906191      0.0111044600     0.0165871700    -0.0075909900
 Ag   4.3962537130     1.4919588566    -1.8957906191      0.0111044600    -0.0165871700    -0.0075909900
 Ag   1.4897319950     4.3940268455    -1.8957906191     -0.0111044600     0.0165871700    -0.0075909900
 Ag   1.4897319950     1.4919588566    -1.8957906191     -0.0111044600    -0.0165871700    -0.0075909900
 Ag   2.9429928569     2.9429928569     0.0000000000      0.0000000000     0.0000000000     0.0000000000
 Ag   2.9429928569     0.0000000000     0.0000000000      0.0000000000     0.0000000000     0.0000000000
 Ag   0.0000000000     2.9429928569     0.0000000000      0.0000000000     0.0000000000     0.0000000000
 Ag   0.0000000000     0.0000000000     0.0000000000      0.0000000000     0.0000000000     0.0000000000
 Ag   1.4897319950     1.4919588566     1.8957906191     -0.0111044600    -0.0165871700     0.0075909900
 Ag   1.4897319950     4.3940268455     1.8957906191     -0.0111044600     0.0165871700     0.0075909900
 Ag   4.3962537130     1.4919588566     1.8957906191      0.0111044600    -0.0165871700     0.0075909900
 Ag   4.3962537130     4.3940268455     1.8957906191      0.0111044600     0.0165871700     0.0075909900
  8    0.0000000000     0.0000000000     2.9665470888      0.0000000000     0.0000000000    -0.0085060900
  C    3.6171979893     2.9429928569     3.9283877309      0.0325712900     0.0000000000     0.0296082100
  H    4.1869806945     3.9143517689     4.0174257116     -0.0118707800    -0.0353202100     0.0074868700
  H    4.1869806945     1.9716339449     4.0174257116     -0.0118707800     0.0353202100     0.0074868700
  C    2.2687877245     2.9429928569     3.9283877309     -0.0325712900     0.0000000000     0.0296082100
  H    1.6990050193     3.9143517689     4.0174257116      0.0118707800    -0.0353202100     0.0074868700
  H    1.6990050193     1.9716339449     4.0174257116      0.0118707800     0.0353202100     0.0074868700
 PRIMCOORD 10
26 1
  C    3.5975448868     2.9429928569    -4.0138334197      0.1046073200     0.0000000000    -0.0145701700
  H    4.1919642679     3.8968744906    -4.0293755223     -0.0131432600    -0.0268628600    -0.0130723300
  H    4.1919642679     1.9891112233    -4.0293755223     -0.0131432600     0.0268628600    -0.0130723300
  C    2.2884408271     2.9429928569    -4.0138334197     -0.1046073200     0.0000000000    -0.0145701700
  H    1.6940214459     3.8968744906    -4.0293755223      0.0131432600    -0.0268628600    -0.0130723300
  H    1.6940214459     1.9891112233    -4.0293755223      0.0131432600     0.0268628600    -0.0130723300
  8    0.0000000000     0.0000000000    -2.9693905012      0.0000000000     0.0000000000    -0.0009374200
 Ag   4.4177840379     4.4263920700    -1.9058070021      0.0004696500     0.0026252000    -0.0047813500
 Ag   4.4177840379     1.4595936321    -1.9058070021      0.0004696500    -0.0026252000    -0.0047813500
 Ag   1.4682016701     4.4263920700    -1.9058070021     -0.0004696500     0.0026252000    -0.0047813500
 Ag   1.4682016701     1.4595936321    -1.9058070021     -0.0004696500    -0.0026252000    -0.0047813500
 Ag   2.9429928569     2.9429928569     0.0000000000      0.0000000000     0.0000000000     0.0000000000
 Ag   2.9429928569     0.0000000000     0.0000000000      0.0000000000     0.0000000000     0.0000000000
 Ag   0.0000000000     2.9429928569     0.0000000000      0.0000000000     0.0000000000     0.0000000000
 Ag   0.0000000000     0.0000000000     0.0000000000      0.0000000000     0.0000000000     0.0000000000
 Ag   1.4682016701     1.4595936321     1.9058070021     -0.0004696500    -0.0026252000     0.0047813500
 Ag   1.4682016701     4.4263920700     1.9058070021     -0.0004696500     0.0026252000     0.0047813500
 Ag   4.4177840379     1.4595936321     1.9058070021      0.0004696500    -0.0026252000     0.0047813500
 Ag   4.4177840379     4.4263920700     1.9058070021      0.0004696500     0.0026252000     0.0047813500
  8    0.0000000000     0.0000000000     2.9693905012      0.0000000000     0.0000000000     0.0009374200
  C    3.5975448868     2.9429928569     4.0138334197      0.1046073200     0.0000000000     0.0145701700
  H    4.1919642679     3.8968744906     4.0293755223     -0.0131432600    -0.0268628600     0.0130723300
  H    4.1919642679     1.9891112233     4.0293755223     -0.0131432600     0.0268628600     0.0130723300
  C    2.2884408271     2.9429928569     4.0138334197     -0.1046073200     0.0000000000     0.0145701700
  H    1.6940214459     3.8968744906     4.0293755223      0.0131432600    -0.0268628600     0.0130723300
  H    1.6940214459     1.9891112233     4.0293755223      0.0131432600     0.0268628600     0.0130723300
 PRIMCOORD 11
26 1
  C    3.6190380359     2.9429928569    -4.0526278385     -0.0266015600     0.0000000000    -0.0060020500
  H    4.1892603004     3.8723891257    -4.0453027564      0.0052200800     0.0049040800    -0.0159027500
  H    4.1892603004     2.0135965882    -4.0453027564      0.0052200800    -0.0049040800    -0.0159027500
  C    2.2669476780     2.9429928569    -4.0526278385      0.0266015600     0.0000000000    -0.0060020500
  H    1.6967254135     3.8723891257    -4.0453027564     -0.0052200800     0.0049040800    -0.0159027500
  H    1.6967254135     2.0135965882    -4.0453027564     -0.0052200800    -0.0049040800    -0.0159027500
  8    0.0000000000     0.0000000000    -2.9596076681      0.0000000000     0.0000000000    -0.0113984800
 Ag   4.4344019451     4.4513922878    -1.9161863502     -0.0090878600    -0.0091830100    -0.0016844300
 Ag   4.4344019451     1.4345934143    -1.9161863502     -0.0090878600     0.0091830100    -0.0016844300
 Ag   1.4515837629     4.4513922878    -1.9161863502      0.0090878600    -0.0091830100    -0.0016844300
 Ag   1.4515837629     1.4345934143    -1.9161863502      0.0090878600     0.0091830100    -0.0016844300
 Ag   2.9429928569     2.9429928569     0.0000000000      0.0000000000     0.0000000000     0.0000000000
 Ag   2.9429928569     0.0000000000     0.0000000000      0.0000000000     0.0000000000     0.0000000000
 Ag   0.0000000000     2.9429928569     0.0000000000      0.0000000000     0.0000000000     0.0000000000
 Ag   0.0000000000     0.0000000000     0.0000000000      0.0000000000     0.0000000000     0.0000000000
 Ag   1.4515837629     1.4345934143     1.9161863502      0.0090878600     0.0091830100     0.0016844300
 Ag   1.4515837629     4.4513922878     1.9161863502      0.0090878600    -0.0091830100     0.0016844300
 Ag   4.4344019451     1.4345934143     1.9161863502     -0.0090878600     0.0091830100     0.0016844300
 Ag   4.4344019451     4.4513922878     1.9161863502     -0.0090878600    -0.0091830100     0.0016844300
  8    0.0000000000     0.0000000000     2.9596076681      0.0000000000     0.0000000000     0.0113984800