ATOMS
6 1.22650000 0.00000000 3.31450000
6 0.37900000 1.16640000 3.31450000
6 -0.99220000 0.72090000 3.31450000
6 -0.99220000 -0.72090000 3.31450000
6 0.37900000 -1.16640000 3.31450000
6 3.40840000 0.72090000 0.59480000
6 2.79510000 1.16640000 1.82130000
6 2.41610000 0.00000000 2.57930000
6 2.79510000 -1.16640000 1.82130000
6 3.40840000 -0.72090000 0.59480000
6 0.36760000 3.46430000 0.59480000
6 -0.24560000 3.01880000 1.82130000
6 0.74660000 2.29790000 2.57930000
6 1.97310000 2.29790000 1.82130000
6 1.73890000 3.01880000 0.59480000
6 -3.18120000 1.42020000 0.59480000
6 -2.94690000 0.69930000 1.82130000
6 -1.95470000 1.42020000 2.57930000
6 -1.57570000 2.58660000 1.82130000
6 -2.33370000 2.58660000 0.59480000
6 -2.33370000 -2.58660000 0.59480000
6 -1.57570000 -2.58660000 1.82130000
6 -1.95470000 -1.42020000 2.57930000
6 -2.94690000 -0.69930000 1.82130000
6 -3.18120000 -1.42020000 0.59480000
6 1.73890000 -3.01880000 0.59480000
6 1.97310000 -2.29790000 1.82130000
6 0.74660000 -2.29790000 2.57930000
6 -0.24560000 -3.01880000 1.82130000
6 0.36760000 -3.46430000 0.59480000
6 0.99220000 0.72090000 -3.31450000
6 -0.37900000 1.16640000 -3.31450000
6 -1.22650000 0.00000000 -3.31450000
6 -0.37900000 -1.16640000 -3.31450000
6 0.99220000 -0.72090000 -3.31450000
6 2.33370000 2.58660000 -0.59480000
6 1.57570000 2.58660000 -1.82130000
6 1.95470000 1.42020000 -2.57930000
6 2.94690000 0.69930000 -1.82130000
6 3.18120000 1.42020000 -0.59480000
6 -1.73890000 3.01880000 -0.59480000
6 -1.97310000 2.29790000 -1.82130000
6 -0.74660000 2.29790000 -2.57930000
6 0.24560000 3.01880000 -1.82130000
6 -0.36760000 3.46430000 -0.59480000
6 -3.40840000 -0.72090000 -0.59480000
6 -2.79510000 -1.16640000 -1.82130000
6 -2.41610000 0.00000000 -2.57930000
6 -2.79510000 1.16640000 -1.82130000
6 -3.40840000 0.72090000 -0.59480000
6 -0.36760000 -3.46430000 -0.59480000
6 0.24560000 -3.01880000 -1.82130000
6 -0.74660000 -2.29790000 -2.57930000
6 -1.97310000 -2.29790000 -1.82130000
6 -1.73890000 -3.01880000 -0.59480000
6 3.18120000 -1.42020000 -0.59480000
6 2.94690000 -0.69930000 -1.82130000
6 1.95470000 -1.42020000 -2.57930000
6 1.57570000 -2.58660000 -1.82130000
6 2.33370000 -2.58660000 -0.59480000
