 ATOMS
    6    0.0000000000    0.0000000000    0.0000000000
    8    0.0000000000    0.0000000000    1.2614009982
    7    0.0000000000    1.1482466623   -0.6997899990
    7    0.0000000000   -1.1482466623   -0.6997899990
    1    0.0000000000    2.0265496485   -0.2028169999
    1    0.0000000000   -2.0265496485   -0.2028169999
    1    0.0000000000    1.1340804828   -1.7049749982
    1    0.0000000000   -1.1340804828   -1.7049749982

BEGIN_BLOCK_DATAGRID_2D
Grid1::  Charge Density Difference;  Grid2:: Charge Density
DATAGRID_2D_Charge_Density_Difference
41 42
0.000000e+00 -3.501404e+00 3.320950e+00
0.000000e+00 6.889479e+00 0.000000e+00
0.000000e+00 9.916210e-02 -7.036295e+00
 -8.632000e-11 -1.614379e-10 -2.793978e-10 -4.472420e-10 -6.637130e-10 -9.109040e-10
 -1.153951e-09 -1.340884e-09 -1.388230e-09 -1.092340e-09 1.759499e-10 4.329099e-09
 1.627900e-08 4.610300e-08 1.090540e-07 2.192601e-07 3.766204e-07 5.567194e-07
 7.184999e-07 8.287006e-07 8.774005e-07 8.674997e-07 7.978997e-07 6.678001e-07
 4.950102e-07 3.184900e-07 1.757900e-07 8.276498e-08 3.301798e-08 1.081411e-08
 2.366100e-09 -4.446199e-10 -1.256180e-09 -1.396090e-09 -1.287073e-09 -1.073568e-09
 -8.244930e-10 -5.851230e-10 -3.840964e-10 -2.336348e-10 -1.314634e-10 -4.080240e-10
 -7.622770e-10 -1.317417e-09 -2.108508e-09 -3.122203e-09 -4.274208e-09 -5.398030e-09
 -6.225860e-09 -6.268301e-09 -4.242500e-09 3.933099e-09 3.060701e-08 1.074770e-07
 2.993100e-07 7.039798e-07 1.411500e-06 2.418999e-06 3.565903e-06 4.586600e-06
 5.271300e-06 5.566901e-06 5.501104e-06 5.063703e-06 4.239901e-06 3.141402e-06
 2.017799e-06 1.111430e-06 5.226800e-07 2.092100e-07 6.991598e-08 1.715599e-08
 -3.141025e-10 -5.390341e-09 -6.395550e-09 -5.977290e-09 -4.999510e-09 -3.839862e-09
 -2.724476e-09 -1.787935e-09 -1.085771e-09 -6.103570e-10 -1.785431e-09 -3.331574e-09
 -5.754010e-09 -9.195531e-09 -1.359538e-08 -1.858300e-08 -2.340545e-08 -2.680253e-08
 -2.630400e-08 -1.507080e-08 2.898300e-08 1.726610e-07 5.865099e-07 1.616370e-06
 3.776498e-06 7.515500e-06 1.274800e-05 1.853300e-05 2.343900e-05 2.650201e-05
 2.771700e-05 2.742800e-05 2.552301e-05 2.167298e-05 1.625399e-05 1.052700e-05
 5.825001e-06 2.745999e-06 1.102030e-06 3.717801e-07 9.581899e-08 4.772005e-09
 -2.167960e-08 -2.723810e-08 -2.573393e-08 -2.157077e-08 -1.656549e-08 -1.174404e-08
 -7.700820e-09 -4.672247e-09 -2.623105e-09 -7.233120e-09 -1.348349e-08 -2.325832e-08
 -3.712309e-08 -5.481840e-08 -7.481570e-08 -9.400441e-08 -1.070633e-07 -1.030853e-07
 -5.096700e-08 1.504060e-07 8.055999e-07 2.685900e-06 7.332201e-06 1.696030e-05
 3.329200e-05 5.536701e-05 7.833604e-05 9.582005e-05 1.048299e-04 1.075000e-04
 1.068800e-04 1.019799e-04 8.936197e-05 6.886700e-05 4.548402e-05 2.548401e-05
 1.210200e-05 4.879401e-06 1.655760e-06 4.360002e-07 3.387601e-08 -8.293399e-08
 -1.080701e-07 -1.027347e-07 -8.619850e-08 -6.616950e-08 -4.687250e-08 -3.070571e-08
 -1.861082e-08 -1.043836e-08 -2.712923e-08 -5.051270e-08 -8.703100e-08 -1.387459e-07
 -2.046216e-07 -2.788722e-07 -3.497654e-07 -3.970700e-07 -3.786840e-07 -1.733700e-07
 6.121902e-07 3.153799e-06 1.039120e-05 2.806300e-05 6.399499e-05 1.230400e-04
 1.985800e-04 2.694102e-04 3.123002e-04 3.229398e-04 3.199698e-04 3.214497e-04
 3.212702e-04 2.971902e-04 2.395100e-04 1.632801e-04 9.340799e-05 4.492998e-05
 1.825540e-05 6.226001e-06 1.649119e-06 1.357000e-07 -3.046900e-07 -3.998070e-07
 -3.803550e-07 -3.190023e-07 -2.446954e-07 -1.731780e-07 -1.133367e-07 -6.862730e-08
 -3.845197e-08 -9.419510e-08 -1.751798e-07 -3.014575e-07 -4.799981e-07 -7.069910e-07
 -9.622780e-07 -1.205396e-06 -1.367258e-06 -1.305543e-06 -6.144801e-07 2.010001e-06
 1.042070e-05 3.408100e-05 9.088800e-05 2.034690e-04 3.809000e-04 5.916201e-04
 7.601399e-04 8.182200e-04 7.762006e-04 7.261001e-04 7.445998e-04 8.044001e-04
 8.057598e-04 6.895303e-04 4.898699e-04 2.879800e-04 1.409740e-04 5.789399e-05
 1.984060e-05 5.218300e-06 3.483101e-07 -1.075000e-06 -1.378495e-06 -1.305508e-06
 -1.093109e-06 -8.376270e-07 -5.922690e-07 -3.872526e-07 -2.342632e-07 -1.311285e-07
 -3.027632e-07 -5.623780e-07 -9.665409e-07 -1.536957e-06 -2.260740e-06 -3.073145e-06
 -3.846497e-06 -4.368270e-06 -4.216650e-06 -2.223100e-06 5.304100e-06 2.909860e-05
 9.494898e-05 2.497760e-04 5.476200e-04 9.959801e-04 1.487600e-03 1.810599e-03
 1.798900e-03 1.522901e-03 1.297500e-03 1.383699e-03 1.680899e-03 1.849400e-03
 1.680700e-03 1.243010e-03 7.516998e-04 3.752400e-04 1.560180e-04 5.365800e-05
 1.378030e-05 3.476998e-07 -3.605880e-06 -4.421540e-06 -4.151590e-06 -3.467209e-06
 -2.653656e-06 -1.874713e-06 -1.224739e-06 -7.402290e-07 -4.139521e-07 -9.008350e-07
 -1.671138e-06 -2.868230e-06 -4.554366e-06 -6.689170e-06 -9.080700e-06 -1.135909e-05
 -1.293377e-05 -1.270438e-05 -7.771299e-06 1.079720e-05 6.846999e-05 2.249260e-04
 5.843301e-04 1.255780e-03 2.230390e-03 3.252901e-03 3.866399e-03 3.672998e-03
 2.760001e-03 2.012596e-03 2.321698e-03 3.304899e-03 3.889397e-03 3.616400e-03
 2.721299e-03 1.676781e-03 8.512901e-04 3.580300e-04 1.230380e-04 2.995700e-05
 -1.878401e-06 -1.133190e-05 -1.315829e-05 -1.222089e-05 -1.017548e-05 -7.778750e-06
 -5.491270e-06 -3.584830e-06 -2.164968e-06 -1.209655e-06 -2.480998e-06 -4.596149e-06
 -7.876760e-06 -1.248702e-05 -1.830913e-05 -2.481595e-05 -3.102208e-05 -3.543490e-05
 -3.551630e-05 -2.506300e-05 1.439599e-05 1.344080e-04 4.526700e-04 1.166880e-03
 2.471800e-03 4.353300e-03 6.445900e-03 8.057900e-03 8.068904e-03 5.723000e-03
 3.346995e-03 4.432991e-03 7.301994e-03 8.338094e-03 7.257599e-03 5.267201e-03
 3.229700e-03 1.653210e-03 7.001399e-04 2.379650e-04 5.151301e-05 -1.345580e-05
 -3.292280e-05 -3.622730e-05 -3.326586e-05 -2.761631e-05 -2.109170e-05 -1.488160e-05
 -9.709950e-06 -5.860310e-06 -3.271916e-06 -6.324430e-06 -1.169854e-05 -2.001522e-05
 -3.167136e-05 -4.634550e-05 -6.269570e-05 -7.829550e-05 -8.969390e-05 -9.167820e-05
 -7.282071e-05 -5.470065e-07 2.141160e-04 7.695900e-04 1.989660e-03 4.196799e-03
 7.508399e-03 1.193940e-02 1.727000e-02 2.060001e-02 1.631400e-02 9.267986e-03
 1.288399e-02 1.993600e-02 1.919201e-02 1.405160e-02 9.164400e-03 5.406499e-03
 2.752580e-03 1.163140e-03 3.822000e-04 6.111601e-05 -5.318600e-05 -8.764610e-05
 -9.204680e-05 -8.365470e-05 -6.927890e-05 -5.288250e-05 -3.730471e-05 -2.433404e-05
 -1.468004e-05 -8.191110e-06 -1.492097e-05 -2.755372e-05 -4.705270e-05 -7.429581e-05
 -1.084645e-04 -1.463870e-04 -1.825287e-04 -2.095327e-04 -2.177854e-04 -1.892590e-04
 -7.540401e-05 2.542699e-04 1.085730e-03 2.877951e-03 6.126799e-03 1.138760e-02
 2.023630e-02 3.523600e-02 5.122700e-02 4.698604e-02 2.156103e-02 3.717804e-02
 5.329299e-02 4.202101e-02 2.511299e-02 1.415610e-02 7.828100e-03 3.908001e-03
 1.620710e-03 4.872900e-04 1.228997e-05 -1.608460e-04 -2.129200e-04 -2.155083e-04
 -1.942333e-04 -1.605898e-04 -1.225769e-04 -8.648490e-05 -5.641570e-05 -3.402698e-05
 -1.897791e-05 -3.257726e-05 -6.004670e-05 -1.023236e-04 -1.611846e-04 -2.347085e-04
 -3.159541e-04 -3.931970e-04 -4.518460e-04 -4.757600e-04 -4.409760e-04 -2.879159e-04
 1.438201e-04 1.204640e-03 3.454000e-03 7.554002e-03 1.467970e-02 2.869900e-02
 5.629000e-02 9.246999e-02 1.104801e-01 -6.715989e-02 7.418990e-02 1.045580e-01
 6.883499e-02 3.656501e-02 1.845320e-02 9.588398e-03 4.637801e-03 1.822100e-03
 4.177301e-04 -1.819700e-04 -4.061750e-04 -4.721220e-04 -4.650550e-04 -4.165660e-04
 -3.440804e-04 -2.627018e-04 -1.854253e-04 -1.209869e-04 -7.297380e-05 -4.068958e-05
 -6.581830e-05 -1.210729e-04 -2.058585e-04 -3.235301e-04 -4.700460e-04 -6.314710e-04
 -7.847100e-04 -9.023500e-04 -9.589060e-04 -9.286350e-04 -7.563800e-04 -2.840401e-04
 8.473797e-04 3.216600e-03 7.536199e-03 1.522690e-02 3.073800e-02 5.910400e-02
 9.052700e-02 1.591200e-01 -4.239960e-01 1.468301e-01 1.062310e-01 6.931803e-02
 3.851400e-02 1.901510e-02 9.512700e-03 4.350800e-03 1.441090e-03 -1.676986e-05
 -6.498500e-04 -8.934030e-04 -9.602240e-04 -9.282720e-04 -8.276480e-04 -6.828390e-04
 -5.211870e-04 -3.678734e-04 -2.400562e-04 -1.447977e-04 -8.072890e-05 -1.230529e-04
 -2.258968e-04 -3.833571e-04 -6.016600e-04 -8.737670e-04 -1.174593e-03 -1.461484e-03
 -1.683654e-03 -1.799829e-03 -1.790220e-03 -1.633180e-03 -1.224960e-03 -2.727499e-04
 1.728401e-03 5.398601e-03 1.183441e-02 2.380200e-02 3.980500e-02 2.814996e-02
 -5.079007e-02 -1.637700e-01 -8.921003e-02 1.291198e-02 4.166102e-02 2.863899e-02
 1.460620e-02 6.913599e-03 2.599701e-03 1.785401e-04 -1.021520e-03 -1.548280e-03
 -1.761590e-03 -1.810503e-03 -1.729940e-03 -1.535455e-03 -1.262297e-03 -9.605090e-04
 -6.765380e-04 -4.410010e-04 -2.658958e-04 -1.482175e-04 -2.129109e-04 -3.901967e-04
 -6.617110e-04 -1.039988e-03 -1.517207e-03 -2.054873e-03 -2.577530e-03 -2.984560e-03
 -3.195650e-03 -3.207000e-03 -3.084760e-03 -2.854560e-03 -2.358350e-03 -1.213900e-03
 1.091002e-03 5.352501e-03 1.328900e-02 2.356201e-02 1.327398e-02 -5.247599e-02
 -1.226070e-01 -7.635701e-02 1.689017e-03 2.456400e-02 1.613499e-02 7.009603e-03
 1.978602e-03 -7.397998e-04 -2.137980e-03 -2.761200e-03 -3.036600e-03 -3.184590e-03
 -3.216090e-03 -3.061370e-03 -2.700730e-03 -2.198647e-03 -1.656134e-03 -1.157678e-03
 -7.513590e-04 -4.521500e-04 -2.518661e-04 -3.410131e-04 -6.245070e-04 -1.061133e-03
 -1.679693e-03 -2.485739e-03 -3.435640e-03 -4.395860e-03 -5.137240e-03 -5.456180e-03
 -5.381899e-03 -5.207880e-03 -5.224630e-03 -5.435520e-03 -5.526600e-03 -4.988801e-03
 -2.953302e-03 2.779506e-03 1.583001e-02 3.399301e-02 4.341701e-02 4.242700e-02
 4.357302e-02 3.754300e-02 2.004801e-02 5.098000e-03 -2.057999e-03 -4.691802e-03
 -5.478600e-03 -5.484301e-03 -5.264370e-03 -5.188560e-03 -5.336130e-03 -5.466301e-03
 -5.254949e-03 -4.600650e-03 -3.669310e-03 -2.700790e-03 -1.854109e-03 -1.190408e-03
 -7.127200e-04 -3.962629e-04 -5.057750e-04 -9.270790e-04 -1.585121e-03 -2.549558e-03
 -3.882690e-03 -5.573601e-03 -7.377190e-03 -8.708320e-03 -8.977600e-03 -8.314000e-03
 -7.679500e-03 -7.956401e-03 -9.196500e-03 -1.083170e-02 -1.218930e-02 -1.241500e-02
 -9.178601e-03 3.256992e-03 3.136800e-02 6.980401e-02 9.240201e-02 7.694602e-02
 3.911498e-02 7.719994e-03 -7.601000e-03 -1.215700e-02 -1.237170e-02 -1.115940e-02
 -9.528100e-03 -8.149199e-03 -7.646601e-03 -8.141100e-03 -8.892699e-03 -8.862900e-03
 -7.717990e-03 -5.955280e-03 -4.209280e-03 -2.795760e-03 -1.758695e-03 -1.042558e-03
 -5.774311e-04 -6.947750e-04 -1.277147e-03 -2.208188e-03 -3.643840e-03 -5.793260e-03
 -8.769320e-03 -1.210370e-02 -1.430190e-02 -1.374220e-02 -1.092780e-02 -8.753601e-03
 -9.473698e-03 -1.266580e-02 -1.641470e-02 -1.930540e-02 -2.111670e-02 -2.148580e-02
 -1.646300e-02 4.272997e-03 4.766801e-02 8.012301e-02 5.619800e-02 1.062199e-02
 -1.427001e-02 -2.119010e-02 -2.133340e-02 -1.970590e-02 -1.702080e-02 -1.335810e-02
 -9.916302e-03 -8.645900e-03 -1.039270e-02 -1.333650e-02 -1.443060e-02 -1.264180e-02
 -9.374350e-03 -6.271509e-03 -3.972790e-03 -2.424515e-03 -1.415698e-03 -7.794480e-04
 -8.837590e-04 -1.631246e-03 -2.860670e-03 -4.867830e-03 -8.123791e-03 -1.297970e-02
 -1.851990e-02 -2.136050e-02 -1.762190e-02 -9.046197e-03 -3.474101e-03 -5.774796e-03
 -1.375210e-02 -2.135360e-02 -2.437260e-02 -2.379860e-02 -2.447800e-02 -2.765401e-02
 -1.730001e-02 3.001601e-02 6.430501e-02 3.845799e-02 -1.252800e-02 -2.768299e-02
 -2.492400e-02 -2.369370e-02 -2.442030e-02 -2.215080e-02 -1.508660e-02 -6.758701e-03
 -3.292702e-03 -7.804699e-03 -1.646570e-02 -2.127010e-02 -1.924150e-02 -1.383400e-02
 -8.760771e-03 -5.270210e-03 -3.106680e-03 -1.782090e-03 -9.742629e-04 -1.040156e-03
 -1.926556e-03 -3.420410e-03 -5.971899e-03 -1.034220e-02 -1.708370e-02 -2.448460e-02
 -2.608210e-02 -1.248500e-02 8.911997e-03 1.766900e-02 9.600997e-03 -9.760000e-03
 -2.565101e-02 -2.605399e-02 -1.384601e-02 -4.321009e-03 -7.404000e-03 -2.871007e-03
 1.466000e-02 -4.001999e-01 6.639957e-03 5.599856e-05 -8.064002e-03 -4.057005e-03
 -1.216000e-02 -2.498500e-02 -2.665000e-02 -1.226800e-02 7.575996e-03 1.755401e-02
 1.092300e-02 -9.764999e-03 -2.535560e-02 -2.519150e-02 -1.804790e-02 -1.105283e-02
 -6.398390e-03 -3.667540e-03 -2.072814e-03 -1.126535e-03 -1.131653e-03 -2.096717e-03
 -3.739370e-03 -6.589540e-03 -1.151045e-02 -1.888890e-02 -2.578470e-02 -2.051200e-02
 1.906100e-02 6.094301e-02 6.223600e-02 3.884199e-02 -1.993001e-03 -3.337200e-02
 -2.787001e-02 7.808000e-03 3.940499e-02 4.300100e-02 3.858298e-02 4.459000e-02
 -5.769920e-02 4.200006e-02 3.918999e-02 4.224598e-02 4.103199e-02 1.163000e-02
 -2.531999e-02 -3.464901e-02 -6.015003e-03 3.545301e-02 6.090301e-02 6.270099e-02
 2.424501e-02 -1.843499e-02 -2.611810e-02 -1.966930e-02 -1.212300e-02 -6.958080e-03
 -3.949770e-03 -2.219539e-03 -1.203747e-03 -1.137604e-03 -2.098585e-03 -3.717470e-03
 -6.465450e-03 -1.098900e-02 -1.706000e-02 -2.038800e-02 -5.823001e-03 5.174798e-02
 1.055260e-01 1.029840e-01 6.459299e-02 -8.899868e-04 -4.958698e-02 -3.673801e-02
 2.456701e-02 7.935101e-02 8.665302e-02 5.859199e-02 3.185800e-02 2.128699e-02
 3.057200e-02 5.641001e-02 8.542901e-02 8.154100e-02 2.917901e-02 -3.357899e-02
 -5.089799e-02 -5.427003e-03 6.074101e-02 1.013980e-01 1.069920e-01 5.668601e-02
 -3.403991e-03 -2.024520e-02 -1.746310e-02 -1.137050e-02 -6.710890e-03 -3.862050e-03
 -2.184232e-03 -1.188232e-03 -1.057413e-03 -1.934143e-03 -3.370110e-03 -5.680340e-03
 -9.140801e-03 -1.296200e-02 -1.281640e-02 1.972005e-03 4.301000e-02 8.741799e-02
 9.608999e-02 5.738300e-02 -5.865991e-03 -4.124099e-02 -2.679700e-02 2.309799e-02
 7.833001e-02 8.831000e-02 4.975300e-02 1.760989e-03 -1.991600e-02 1.969934e-04
 4.772499e-02 8.749300e-02 7.986498e-02 2.552998e-02 -2.532297e-02 -4.165298e-02
 -8.102000e-03 5.497202e-02 9.546399e-02 8.860400e-02 4.505001e-02 3.091000e-03
 -1.260220e-02 -1.307990e-02 -9.300401e-03 -5.796490e-03 -3.443480e-03 -1.979314e-03
 -1.084620e-03 -9.106140e-04 -1.648825e-03 -2.815420e-03 -4.574870e-03 -6.953469e-03
 -9.129299e-03 -8.140400e-03 1.330398e-03 2.268299e-02 4.675800e-02 4.838401e-02
 1.183900e-02 -1.002800e-02 -1.459007e-01 -3.182030e-02 -6.999969e-04 3.060898e-02
 4.721799e-02 2.314200e-02 -1.146200e-02 -2.694900e-02 -1.180601e-02 2.271700e-02
 4.713401e-02 3.104600e-02 -5.859733e-04 -2.946997e-02 -1.520004e-01 -9.895027e-03
 1.129502e-02 4.815900e-02 4.697099e-02 2.299399e-02 1.517698e-03 -8.088697e-03
 -9.145001e-03 -6.984240e-03 -4.600190e-03 -2.832760e-03 -1.660010e-03 -9.175140e-04
 -7.285780e-04 -1.307949e-03 -2.195950e-03 -3.470740e-03 -5.105280e-03 -6.636101e-03
 -6.721102e-03 -3.454499e-03 3.408402e-03 7.986009e-03 -4.462004e-03 -3.992599e-02
 -4.399401e-02 -6.420040e-02 -2.819014e-02 -4.862100e-02 -2.377898e-02 -1.243994e-03
 -6.059006e-03 -2.056300e-02 -2.738979e-02 -2.035900e-02 -5.847007e-03 -1.366004e-03
 -2.433601e-02 -4.856503e-02 -2.891970e-02 -6.099987e-02 -4.466003e-02 -3.934202e-02
 -4.050016e-03 8.001000e-03 3.288202e-03 -3.539801e-03 -6.741500e-03 -6.618100e-03
 -5.077650e-03 -3.447060e-03 -2.178820e-03 -1.296446e-03 -7.213410e-04 -5.433520e-04
 -9.711960e-04 -1.616477e-03 -2.525760e-03 -3.712031e-03 -5.072970e-03 -6.335899e-03
 -7.319201e-03 -8.788697e-03 -1.384800e-02 -2.739000e-02 -4.700598e-02 -4.799801e-02
 -1.889503e-02 -2.909601e-02 -4.894099e-02 -3.743201e-02 -2.406999e-02 -2.135310e-02
 -2.427450e-02 -2.605399e-02 -2.413150e-02 -2.129610e-02 -2.443299e-02 -3.818399e-02
 -4.886100e-02 -2.773201e-02 -1.982898e-02 -4.883000e-02 -4.625702e-02 -2.658500e-02
 -1.347790e-02 -8.681998e-03 -7.277399e-03 -6.286399e-03 -5.012500e-03 -3.654610e-03
 -2.479630e-03 -1.582735e-03 -9.481009e-04 -5.286720e-04 -3.792150e-04 -6.790070e-04
 -1.132093e-03 -1.777780e-03 -2.668000e-03 -3.886180e-03 -5.590400e-03 -8.089399e-03
 -1.183340e-02 -1.686900e-02 -2.046400e-02 -1.395398e-02 1.010501e-02 3.617603e-02
 3.064600e-02 3.378004e-03 -1.546200e-02 -2.139501e-02 -2.197120e-02 -2.199950e-02
 -2.209290e-02 -2.199050e-02 -2.197360e-02 -2.123699e-02 -1.460201e-02 5.281001e-03
 3.221703e-02 3.506300e-02 7.907987e-03 -1.499599e-02 -2.040701e-02 -1.649050e-02
 -1.151330e-02 -7.872801e-03 -5.445500e-03 -3.784500e-03 -2.594010e-03 -1.723710e-03
 -1.093426e-03 -6.526660e-04 -3.625160e-04 -2.491796e-04 -4.505150e-04 -7.612309e-04
 -1.219254e-03 -1.890070e-03 -2.902980e-03 -4.485310e-03 -6.898499e-03 -1.000170e-02
 -1.190910e-02 -6.487399e-03 1.639800e-02 5.845100e-02 9.453499e-02 8.679301e-02
 4.477201e-02 7.197991e-03 -1.126429e-02 -1.652370e-02 -1.710020e-02 -1.700720e-02
 -1.710600e-02 -1.631520e-02 -1.017490e-02 1.012000e-02 4.930100e-02 8.976999e-02
 9.245399e-02 5.383399e-02 1.310201e-02 -7.651001e-03 -1.190190e-02 -9.689299e-03
 -6.615800e-03 -4.292670e-03 -2.780250e-03 -1.810200e-03 -1.165159e-03 -7.241740e-04
 -4.259070e-04 -2.338541e-04 -1.557303e-04 -2.873600e-04 -4.988970e-04 -8.270900e-04
 -1.335780e-03 -2.142040e-03 -3.426920e-03 -5.325040e-03 -7.432701e-03 -7.567700e-03
 -1.133010e-04 2.294401e-02 6.647001e-02 1.124750e-01 1.010350e-01 5.001400e-02
 1.268100e-02 -5.595900e-03 -1.156410e-02 -1.250050e-02 -1.246620e-02 -1.248450e-02
 -1.120750e-02 -4.108302e-03 1.630599e-02 5.630299e-02 1.062960e-01 1.086110e-01
 5.984600e-02 1.887500e-02 -1.778804e-03 -7.817701e-03 -7.198900e-03 -5.050680e-03
 -3.228430e-03 -2.016020e-03 -1.256960e-03 -7.766050e-04 -4.661610e-04 -2.665970e-04
 -1.432441e-04 -9.411520e-05 -1.798140e-04 -3.260240e-04 -5.679740e-04 -9.639610e-04
 -1.609900e-03 -2.638860e-03 -4.133600e-03 -5.788901e-03 -6.176500e-03 -2.052497e-03
 1.119100e-02 4.219501e-02 8.582598e-02 7.326400e-02 2.836001e-02 4.411399e-03
 -5.770598e-03 -8.977700e-03 -9.287800e-03 -9.173799e-03 -9.307199e-03 -8.756602e-03
 -4.754800e-03 6.975502e-03 3.419499e-02 7.980302e-02 8.081198e-02 3.567499e-02
 8.268602e-03 -3.170900e-03 -6.309599e-03 -5.557800e-03 -3.872890e-03 -2.447270e-03
 -1.487170e-03 -8.884760e-04 -5.218030e-04 -2.979290e-04 -1.630990e-04 -8.459290e-05
 -5.630220e-05 -1.132445e-04 -2.177766e-04 -4.032020e-04 -7.227150e-04 -1.257040e-03
 -2.113750e-03 -3.386560e-03 -5.011699e-03 -6.513899e-03 -6.927900e-03 -5.073100e-03
 2.311990e-03 1.546799e-02 1.103500e-02 -1.895003e-03 -6.894998e-03 -8.184798e-03
 -7.942200e-03 -7.278371e-03 -7.012070e-03 -7.388160e-03 -8.050401e-03 -8.096099e-03
 -6.375000e-03 -1.240075e-04 1.350801e-02 1.356499e-02 2.579987e-04 -5.670495e-03
 -6.983500e-03 -6.285300e-03 -4.699440e-03 -3.119340e-03 -1.926240e-03 -1.137620e-03
 -6.503990e-04 -3.608020e-04 -1.936087e-04 -9.990019e-05 -4.922000e-05 -3.418796e-05
 -7.332470e-05 -1.506740e-04 -2.967900e-04 -5.599140e-04 -1.010346e-03 -1.741790e-03
 -2.864530e-03 -4.485360e-03 -6.704999e-03 -9.713499e-03 -1.376400e-02 -1.823790e-02
 -2.090530e-02 -2.038680e-02 -1.693600e-02 -1.263830e-02 -9.303000e-03 -7.118100e-03
 -5.880889e-03 -5.531359e-03 -6.069410e-03 -7.498501e-03 -9.908400e-03 -1.350220e-02
 -1.783370e-02 -2.077229e-02 -2.059300e-02 -1.735030e-02 -1.281940e-02 -8.992199e-03
 -6.176100e-03 -4.094330e-03 -2.587450e-03 -1.557350e-03 -8.945520e-04 -4.910229e-04
 -2.578690e-04 -1.297370e-04 -6.256990e-05 -2.890272e-05 -2.139283e-05 -4.900510e-05
 -1.070429e-04 -2.221396e-04 -4.364680e-04 -8.104590e-04 -1.423880e-03 -2.379390e-03
 -3.819230e-03 -5.971360e-03 -9.193600e-03 -1.372910e-02 -1.881110e-02 -2.205710e-02
 -2.121430e-02 -1.698000e-02 -1.206860e-02 -8.287500e-03 -5.918580e-03 -4.678130e-03
 -4.352560e-03 -4.887940e-03 -6.374021e-03 -9.062000e-03 -1.318580e-02 -1.816520e-02
 -2.181120e-02 -2.159850e-02 -1.764410e-02 -1.253090e-02 -8.299101e-03 -5.370921e-03
 -3.418220e-03 -2.111450e-03 -1.249299e-03 -7.019000e-04 -3.728840e-04 -1.872494e-04
 -8.909350e-05 -4.031090e-05 -1.740510e-05 -1.372955e-05 -3.324484e-05 -7.611530e-05
 -1.640310e-04 -3.316200e-04 -6.281250e-04 -1.116724e-03 -1.875010e-03 -3.004680e-03
 -4.652030e-03 -6.994250e-03 -1.004270e-02 -1.318630e-02 -1.505540e-02 -1.453310e-02
 -1.198580e-02 -8.849161e-03 -6.243690e-03 -4.499440e-03 -3.552760e-03 -3.307320e-03
 -3.735360e-03 -4.884940e-03 -6.861760e-03 -9.671230e-03 -1.279250e-02 -1.491790e-02
 -1.476210e-02 -1.240130e-02 -9.172501e-03 -6.288900e-03 -4.148010e-03 -2.657210e-03
 -1.639530e-03 -9.624111e-04 -5.324080e-04 -2.762120e-04 -1.342682e-04 -6.127430e-05
 -2.635037e-05 -1.072879e-05 -8.843950e-06 -2.228318e-05 -5.266420e-05 -1.163305e-04
 -2.395981e-04 -4.597710e-04 -8.231830e-04 -1.381176e-03 -2.187650e-03 -3.296900e-03
 -4.739030e-03 -6.426060e-03 -8.004680e-03 -8.879821e-03 -8.620450e-03 -7.379430e-03
 -5.747850e-03 -4.260890e-03 -3.171130e-03 -2.542040e-03 -2.378640e-03 -2.680120e-03
 -3.447480e-03 -4.667210e-03 -6.236081e-03 -7.818481e-03 -8.819269e-03 -8.728091e-03
 -7.580779e-03 -5.914280e-03 -4.277510e-03 -2.933130e-03 -1.919000e-03 -1.192061e-03
 -6.973580e-04 -3.816790e-04 -1.947733e-04 -9.260760e-05 -4.107900e-05 -1.704696e-05
 -6.644000e-06 -5.569480e-06 -1.439433e-05 -3.469720e-05 -7.782060e-05 -1.621629e-04
 -3.138020e-04 -5.643600e-04 -9.455850e-04 -1.481918e-03 -2.181380e-03 -3.019450e-03
 -3.907720e-03 -4.665260e-03 -5.057240e-03 -4.934289e-03 -4.354870e-03 -3.542470e-03
 -2.735210e-03 -2.093579e-03 -1.702547e-03 -1.601316e-03 -1.799049e-03 -2.277540e-03
 -2.985340e-03 -3.816260e-03 -4.581290e-03 -5.031690e-03 -4.982680e-03 -4.447910e-03
 -3.622720e-03 -2.735590e-03 -1.936749e-03 -1.289663e-03 -8.056390e-04 -4.700690e-04
 -2.552723e-04 -1.287828e-04 -6.033580e-05 -2.627326e-05 -1.065228e-05 -4.031910e-06
 -3.355981e-06 -8.805961e-06 -2.147498e-05 -4.860450e-05 -1.020084e-04 -1.984587e-04
 -3.580380e-04 -5.996460e-04 -9.340190e-04 -1.355614e-03 -1.834223e-03 -2.308040e-03
 -2.685490e-03 -2.870210e-03 -2.808310e-03 -2.523530e-03 -2.105422e-03 -1.664350e-03
 -1.294623e-03 -1.061766e-03 -1.002403e-03 -1.125459e-03 -1.412266e-03 -1.816207e-03
 -2.261261e-03 -2.644850e-03 -2.858590e-03 -2.831850e-03 -2.569660e-03 -2.146560e-03
 -1.661888e-03 -1.198080e-03 -8.052820e-04 -5.040420e-04 -2.932080e-04 -1.582638e-04
 -7.919990e-05 -3.674190e-05 -1.580953e-05 -6.316160e-06 -2.346747e-06 -1.907462e-06
 -5.048260e-06 -1.239272e-05 -2.819571e-05 -5.942570e-05 -1.159985e-04 -2.097301e-04
 -3.513930e-04 -5.459670e-04 -7.872480e-04 -1.053730e-03 -1.308123e-03 -1.503110e-03
 -1.595034e-03 -1.561799e-03 -1.414351e-03 -1.193060e-03 -9.525700e-04 -7.458450e-04
 -6.139090e-04 -5.811500e-04 -6.534250e-04 -8.177049e-04 -1.042940e-03 -1.282737e-03
 -1.481955e-03 -1.589294e-03 -1.574217e-03 -1.438869e-03 -1.215505e-03 -9.512531e-04
 -6.907820e-04 -4.656580e-04 -2.912390e-04 -1.688665e-04 -9.071240e-05 -4.513270e-05
 -2.079787e-05 -8.879550e-06 -3.514531e-06 -1.290804e-06 -1.014048e-06 -2.696238e-06
 -6.642530e-06 -1.515595e-05 -3.201748e-05 -6.261610e-05 -1.133673e-04 -1.900470e-04
 -2.950685e-04 -4.244260e-04 -5.656510e-04 -6.983370e-04 -7.981880e-04 -8.441460e-04
 -8.261830e-04 -7.497499e-04 -6.344510e-04 -5.079250e-04 -3.983060e-04 -3.282460e-04
 -3.114222e-04 -3.510300e-04 -4.394920e-04 -5.591850e-04 -6.846500e-04 -7.871060e-04
 -8.412760e-04 -8.328239e-04 -7.628120e-04 -6.466140e-04 -5.075820e-04 -3.691470e-04
 -2.487446e-04 -1.552653e-04 -8.975040e-05 -4.803190e-05 -2.379672e-05 -1.091480e-05
 -4.635650e-06 -1.823691e-06 -6.649210e-07 -5.018680e-07 -1.337519e-06 -3.300889e-06
 -7.541750e-06 -1.594976e-05 -3.122037e-05 -5.656180e-05 -9.484860e-05 -1.472326e-04
 -2.115893e-04 -2.815310e-04 -3.468120e-04 -3.955050e-04 -4.175400e-04 -4.082610e-04
 -3.703830e-04 -3.134081e-04 -2.508496e-04 -1.966503e-04 -1.621404e-04 -1.541619e-04
 -1.742543e-04 -2.185092e-04 -2.779693e-04 -3.398580e-04 -3.899890e-04 -4.161730e-04
 -4.116420e-04 -3.769860e-04 -3.196007e-04 -2.508432e-04 -1.822807e-04 -1.226342e-04
 -7.638020e-05 -4.403450e-05 -2.349722e-05 -1.160481e-05 -5.304860e-06 -2.244789e-06
 -8.794880e-07 -3.191339e-07 -2.306547e-07 -6.153020e-07 -1.519498e-06 -3.473215e-06
 -7.347570e-06 -1.438513e-05 -2.606373e-05 -4.370380e-05 -6.782290e-05 -9.741620e-05
 -1.295068e-04 -1.593590e-04 -1.815076e-04 -1.913842e-04 -1.869210e-04 -1.694025e-04
 -1.431947e-04 -1.144932e-04 -8.969620e-05 -7.399420e-05 -7.050970e-05 -7.991700e-05
 -1.003791e-04 -1.277396e-04 -1.561017e-04 -1.789625e-04 -1.907808e-04 -1.885199e-04
 -1.724912e-04 -1.460936e-04 -1.145300e-04 -8.310461e-05 -5.581290e-05 -3.469215e-05
 -1.995692e-05 -1.062462e-05 -5.234600e-06 -2.386824e-06 -1.007287e-06 -3.934940e-07
 -1.423131e-07 -9.830980e-08 -2.622952e-07 -6.477260e-07 -1.480351e-06 -3.131015e-06
 -6.128270e-06 -1.109997e-05 -1.860511e-05 -2.885875e-05 -4.142530e-05 -5.503070e-05
 -6.765560e-05 -7.698140e-05 -8.108230e-05 -7.910070e-05 -7.160230e-05 -6.045160e-05
 -4.828270e-05 -3.780530e-05 -3.121153e-05 -2.981093e-05 -3.387453e-05 -4.260900e-05
 -5.423880e-05 -6.625530e-05 -7.590090e-05 -8.083800e-05 -7.979661e-05 -7.293050e-05
 -6.169400e-05 -4.829970e-05 -3.499459e-05 -2.346418e-05 -1.455949e-05 -8.360250e-06
 -4.442440e-06 -2.184509e-06 -9.940820e-07 -4.186510e-07 -1.631803e-07 -5.887320e-08
END_DATAGRID_2D
DATAGRID2D_Charge_Density
41 42
0.000000e+00 -3.501404e+00 3.320950e+00
0.000000e+00 6.889479e+00 0.000000e+00
0.000000e+00 9.916210e-02 -7.036295e+00
 1.840300e-11 3.438810e-11 5.943520e-11 9.524300e-11 1.418160e-10 1.973760e-10
 2.650790e-10 3.921360e-10 7.692700e-10 2.334790e-09 8.962320e-09 3.461210e-08
 1.216590e-07 3.759010e-07 1.008260e-06 2.337440e-06 4.679190e-06 8.093410e-06
 1.211130e-05 1.570260e-05 1.765950e-05 1.723700e-05 1.460060e-05 1.072400e-05
 6.821100e-06 3.751810e-06 1.782450e-06 7.312920e-07 2.595700e-07 8.021770e-08
 2.196970e-08 5.605590e-09 1.532500e-09 5.815300e-10 3.380570e-10 2.405420e-10
 1.775270e-10 1.248080e-10 8.178160e-11 4.972620e-11 2.801260e-11 8.698100e-11
 1.623440e-10 2.806830e-10 4.495420e-10 6.685170e-10 9.348720e-10 1.281680e-09
 1.923440e-09 4.022800e-09 1.295620e-08 5.093260e-08 1.972330e-07 6.895900e-07
 2.112300e-06 5.608270e-06 1.286190e-05 2.547130e-05 4.361330e-05 6.469460e-05
 8.331200e-05 9.329680e-05 9.093130e-05 7.711900e-05 5.684510e-05 3.634870e-05
 2.012000e-05 9.623490e-06 3.974220e-06 1.418770e-06 4.402260e-07 1.205970e-07
 3.049640e-08 8.081860e-09 2.901180e-09 1.615520e-09 1.139370e-09 8.313480e-10
 5.820040e-10 3.810250e-10 2.312190e-10 1.300400e-10 3.807590e-10 7.102560e-10
 1.226480e-09 1.961870e-09 2.919720e-09 4.093900e-09 5.630850e-09 8.637970e-09
 1.887580e-08 6.293410e-08 2.498370e-07 9.643760e-07 3.343340e-06 1.013050e-05
 2.657220e-05 6.016280e-05 1.176140e-04 1.989270e-04 2.919320e-04 3.728660e-04
 4.155080e-04 4.044860e-04 3.438640e-04 2.548280e-04 1.641630e-04 9.164990e-05
 4.422630e-05 1.842030e-05 6.626620e-06 2.069150e-06 5.690070e-07 1.436580e-07
 3.753480e-08 1.306920e-08 7.087970e-09 4.945330e-09 3.599110e-09 2.513260e-09
 1.641950e-09 9.959330e-10 5.593150e-10 1.543110e-09 2.875910e-09 4.960880e-09
 7.931510e-09 1.179850e-08 1.654000e-08 2.281860e-08 3.539770e-08 7.894370e-08
 2.665090e-07 1.056770e-06 4.046090e-06 1.387050e-05 4.148420e-05 1.072620e-04
 2.391690e-04 4.602840e-04 7.667990e-04 1.110380e-03 1.403880e-03 1.555390e-03
 1.512880e-03 1.291220e-03 9.643800e-04 6.277000e-04 3.544710e-04 1.730280e-04
 7.284960e-05 2.646430e-05 8.334060e-06 2.307920e-06 5.854010e-07 1.529700e-07
 5.293890e-08 2.851430e-08 1.982450e-08 1.440310e-08 1.004270e-08 6.552390e-09
 3.969280e-09 2.226640e-09 5.790770e-09 1.078220e-08 1.858400e-08 2.969110e-08
 4.413940e-08 6.184280e-08 8.525860e-08 1.320880e-07 2.934730e-07 9.828400e-07
 3.854970e-06 1.457620e-05 4.928150e-05 1.451580e-04 3.690770e-04 8.081520e-04
 1.526170e-03 2.495970e-03 3.556030e-03 4.441490e-03 4.888300e-03 4.752820e-03
 4.079230e-03 3.078700e-03 2.031260e-03 1.164190e-03 5.766030e-04 2.460410e-04
 9.045870e-05 2.879470e-05 8.054350e-06 2.064590e-06 5.469510e-07 1.927060e-07
 1.051710e-07 7.343770e-08 5.336360e-08 3.717700e-08 2.422230e-08 1.465070e-08
 8.207530e-09 2.012290e-08 3.744020e-08 6.449750e-08 1.029920e-07 1.530180e-07
 2.141120e-07 2.939240e-07 4.492020e-07 9.706870e-07 3.159900e-06 1.214280e-05
 4.514930e-05 1.501580e-04 4.345970e-04 1.083920e-03 2.324170e-03 4.294630e-03
 6.880020e-03 9.635020e-03 1.189140e-02 1.300810e-02 1.264300e-02 1.090970e-02
 8.324220e-03 5.576690e-03 3.252470e-03 1.639160e-03 7.107220e-04 2.650510e-04
 8.547430e-05 2.422440e-05 6.314060e-06 1.720420e-06 6.322850e-07 3.562920e-07
 2.516110e-07 1.831730e-07 1.275000e-07 8.294440e-08 5.008980e-08 2.801850e-08
 6.476580e-08 1.204420e-07 2.074190e-07 3.311630e-07 4.918800e-07 6.871950e-07
 9.367630e-07 1.397280e-06 2.870030e-06 8.887200e-06 3.310450e-05 1.204830e-04
 3.931510e-04 1.115780e-03 2.724290e-03 5.711350e-03 1.032920e-02 1.627680e-02
 2.260180e-02 2.784580e-02 3.045720e-02 2.953380e-02 2.540520e-02 1.940730e-02
 1.311880e-02 7.771120e-03 3.988600e-03 1.760450e-03 6.672450e-04 2.184640e-04
 6.294420e-05 1.680440e-05 4.789030e-06 1.882270e-06 1.112750e-06 7.987010e-07
 5.830440e-07 4.054070e-07 2.632410e-07 1.586650e-07 8.859490e-08 1.931050e-07
 3.590420e-07 6.184000e-07 9.877540e-07 1.467640e-06 2.047900e-06 2.768510e-06
 4.000630e-06 7.652920e-06 2.200330e-05 7.840350e-05 2.777770e-04 8.870390e-04
 2.464730e-03 5.887810e-03 1.209580e-02 2.161660e-02 3.424870e-02 4.873620e-02
 6.190630e-02 6.884830e-02 6.617600e-02 5.525610e-02 4.083910e-02 2.710230e-02
 1.607040e-02 8.359320e-03 3.754230e-03 1.447740e-03 4.822080e-04 1.417990e-04
 3.914470e-05 1.191570e-05 5.134810e-06 3.220210e-06 2.354420e-06 1.723070e-06
 1.196060e-06 7.746900e-07 4.658020e-07 2.595450e-07 5.335020e-07 9.922110e-07
 1.710270e-06 2.735280e-06 4.069970e-06 5.678650e-06 7.617320e-06 1.063310e-05
 1.865300e-05 4.845800e-05 1.622320e-04 5.554480e-04 1.731020e-03 4.705770e-03
 1.102050e-02 2.239630e-02 4.060350e-02 6.794800e-02 1.052530e-01 1.443440e-01
 1.662640e-01 1.571260e-01 1.229400e-01 8.306400e-02 5.118530e-02 2.932710e-02
 1.523010e-02 6.930040e-03 2.718350e-03 9.227410e-04 2.783650e-04 8.055070e-05
 2.690890e-05 1.300180e-05 8.686940e-06 6.462990e-06 4.735200e-06 3.277300e-06
 2.115350e-06 1.267940e-06 7.046440e-07 1.366210e-06 2.543160e-06 4.390980e-06
 7.040240e-06 1.050760e-05 1.469020e-05 1.960350e-05 2.649610e-05 4.232280e-05
 9.653930e-05 2.959740e-04 9.684390e-04 2.934970e-03 7.807180e-03 1.801340e-02
 3.683090e-02 7.047520e-02 1.319350e-01 2.318190e-01 3.438210e-01 4.050040e-01