 ATOMS
    8    1.2750000000    1.2750000000    1.2750000000
   40     .0000000000     .0000000000     .0000000000
   40     .0000000000    2.5500000000    2.5500000000
   40    2.5500000000     .0000000000    2.5500000000
   40    2.5500000000    2.5500000000     .0000000000
    8   -1.2750000000    1.2750000000    1.2750000000
    8    1.2750000000   -1.2750000000    1.2750000000
    8    1.2750000000    1.2750000000   -1.2750000000
    8    1.2750000000    1.2750000000    3.8250000000
    8    1.2750000000    3.8250000000    1.2750000000
    8    3.8250000000    1.2750000000    1.2750000000
    8    1.2750000000   -1.2750000000   -1.2750000000
    8   -1.2750000000   -1.2750000000    1.2750000000
    8   -1.2750000000    1.2750000000   -1.2750000000
    8    3.8250000000   -1.2750000000    1.2750000000
    8    3.8250000000    1.2750000000   -1.2750000000
    8    1.2750000000   -1.2750000000    3.8250000000
    8    1.2750000000    3.8250000000   -1.2750000000
    8   -1.2750000000    1.2750000000    3.8250000000
    8   -1.2750000000    3.8250000000    1.2750000000
    8    3.8250000000    1.2750000000    3.8250000000
    8    3.8250000000    3.8250000000    1.2750000000
    8    1.2750000000    3.8250000000    3.8250000000
   40    2.5500000000     .0000000000   -2.5500000000
   40   -2.5500000000     .0000000000    2.5500000000
   40    2.5500000000   -2.5500000000     .0000000000
   40   -2.5500000000    2.5500000000     .0000000000
   40     .0000000000    2.5500000000   -2.5500000000
   40     .0000000000   -2.5500000000    2.5500000000
   40     .0000000000     .0000000000    5.1000000000
   40     .0000000000    5.1000000000     .0000000000
   40    5.1000000000     .0000000000     .0000000000
   40    2.5500000000    2.5500000000    5.1000000000
   40    2.5500000000    5.1000000000    2.5500000000
   40    5.1000000000    2.5500000000    2.5500000000
